
***************************************************************
*                 Welcome to use GPUMD                        *
*     (Graphics Processing Units Molecular Dynamics)          *
*                     version 5.5                             *
*              This is the gpumd executable                   *
***************************************************************


---------------------------------------------------------------
Compiling options:
---------------------------------------------------------------

DEBUG is off: Use different PRNG seeds for different runs.

---------------------------------------------------------------
GPU information:
---------------------------------------------------------------

number of GPUs = 1
Device id:                   0
    Device name:             NVIDIA A100-SXM4-40GB MIG 3g.20gb
    Compute capability:      8.0
    Amount of global memory: 19.5 GB
    Number of SMs:           42

---------------------------------------------------------------
Started running GPUMD.
---------------------------------------------------------------


---------------------------------------------------------------
Started initializing positions and related parameters.
---------------------------------------------------------------

Number of atoms is 164700.
Use periodic boundary conditions along x.
Use periodic boundary conditions along y.
Use periodic boundary conditions along z.
Box matrix h = [a, b, c] is
    3.9021700000e+02    0.0000000000e+00    0.0000000000e+00
    0.0000000000e+00    9.5955000000e+01    0.0000000000e+00
    0.0000000000e+00    0.0000000000e+00    9.5955000000e+01
Inverse box matrix g = inv(h) is
    2.5626766645e-03    0.0000000000e+00    0.0000000000e+00
    0.0000000000e+00    1.0421551769e-02    0.0000000000e+00
    0.0000000000e+00    0.0000000000e+00    1.0421551769e-02
Do not specify initial velocities here.
Have 1 grouping method(s).
There are 9 groups of atoms in grouping method 0.
    2700 atoms in group 0.
    32400 atoms in group 1.
    16200 atoms in group 2.
    16200 atoms in group 3.
    16200 atoms in group 4.
    16200 atoms in group 5.
    16200 atoms in group 6.
    16200 atoms in group 7.
    32400 atoms in group 8.
There are 5 atom types.
    13725 atoms of type 0.
    27450 atoms of type 1.
    68625 atoms of type 2.
    13725 atoms of type 3.
    41175 atoms of type 4.
Initialized velocities with default T = 300 K.

---------------------------------------------------------------
Finished initializing positions and related parameters.
---------------------------------------------------------------


---------------------------------------------------------------
Started executing the commands in run.in.
